# vtk DataFile Version 3.0
vtk output
ASCII
DATASET UNSTRUCTURED_GRID
POINTS 27 float
0 0 0 0 0 1 0 0 2 
0 1 0 0 1 1 0 1 2 
0 2 0 0 2 1 0 2 2 
1 0 0 1 0 1 1 0 2 
1 1 0 1 1 1 1 1 2 
1 2 0 1 2 1 1 2 2 
2 0 0 2 0 1 2 0 2 
2 1 0 2 1 1 2 1 2 
2 2 0 2 2 1 2 2 2 

CELLS 32 160
8 0 3 4 1 9 12 13 10 
8 1 4 5 2 10 13 14 11 
8 3 6 7 4 12 15 16 13 
8 4 7 8 5 13 16 17 14 
8 9 12 13 10 18 21 22 19 
8 10 13 14 11 19 22 23 20 
8 12 15 16 13 21 24 25 22 
8 13 16 17 14 22 25 26 23 
4 0 9 12 3 
4 3 12 15 6 
4 9 18 21 12 
4 12 21 24 15 
4 2 5 14 11 
4 5 8 17 14 
4 11 14 23 20 
4 14 17 26 23 
2 0 3
2 3 6
2 6 15
2 15 24
2 24 21
2 21 18
2 18 9
2 9 0
2 2 5
2 5 8
2 8 17
2 17 26
2 26 23
2 23 20
2 20 11
2 11 2 

CELL_TYPES 32
12
12
12
12
12
12
12
12
9
9
9
9
9
9
9
9
3
3
3
3
3
3
3
3
3
3
3
3
3
3
3
3

CELL_DATA 32
SCALARS MaterialID int
LOOKUP_TABLE default
0 0 0 0 0 0 0 0 
1 1 1 1 2 2 2 2 
0 0 0 0 0 0 0 0 
0 0 0 0 0 0 0 0 
